
Host: condos

Timers On : Fri Jun 14 10:51:06 2019
Timers Off: Fri Jun 14 10:51:08 2019

Wall Time:        1.98 seconds


-----------------------------------------------------------

***********************************************************

Host: condos

Timers On : Fri Jun 14 10:52:28 2019
Timers Off: Fri Jun 14 10:52:29 2019

Wall Time:        0.17 seconds


-----------------------------------------------------------

***********************************************************

Host: condos

Timers On : Fri Jun 14 10:53:44 2019
Timers Off: Fri Jun 14 10:53:44 2019

Wall Time:        0.14 seconds


-----------------------------------------------------------

***********************************************************

Host: condos

Timers On : Fri Jun 14 10:55:09 2019
Timers Off: Fri Jun 14 10:55:09 2019

Wall Time:        0.15 seconds


-----------------------------------------------------------

***********************************************************

Host: condos

Timers On : Fri Jun 14 10:55:31 2019
Timers Off: Fri Jun 14 10:55:32 2019

Wall Time:        0.14 seconds


-----------------------------------------------------------

***********************************************************

Host: condos

Timers On : Fri Jun 14 11:15:36 2019
Timers Off: Fri Jun 14 11:15:36 2019

Wall Time:        0.15 seconds


-----------------------------------------------------------

***********************************************************

Host: condos

Timers On : Fri Jun 14 11:16:22 2019
Timers Off: Fri Jun 14 11:16:22 2019

Wall Time:        0.19 seconds


-----------------------------------------------------------

***********************************************************

Host: condos

Timers On : Fri Jun 14 11:17:54 2019
Timers Off: Fri Jun 14 11:18:33 2019

Wall Time:       38.81 seconds

JK: (A|mn)                  :      5.500u      0.000s      3.310w      1 calls
JK: (A|Q)^-1/2              :      3.550u      0.033s      2.188w      1 calls
JK: (Q|mn)                  :      9.100u      0.000s      5.463w      1 calls
HF: Form H                  :      0.000u      0.000s      0.001w      1 calls
HF: Form S/X                :      0.017u      0.017s      0.013w      1 calls
HF: Guess                   :      0.233u      0.000s      0.168w      1 calls
SAD Guess                   :      0.233u      0.000s      0.162w      1 calls
HF: Form G                  :     21.467u      0.333s     13.071w     10 calls
JK: D                       :      0.000u      0.000s      0.005w     10 calls
JK: USO2AO                  :      0.000u      0.000s      0.000w     10 calls
JK: JK                      :     21.467u      0.333s     13.065w     10 calls
JK: J                       :      0.250u      0.000s      0.184w     11 calls
JK: J1                      :      0.100u      0.000s      0.093w     11 calls
JK: J2                      :      0.150u      0.000s      0.089w     11 calls
JK: K                       :     21.033u      0.000s     12.617w     11 calls
JK: K1                      :     12.417u      0.000s      7.441w     11 calls
JK: K2                      :      8.617u      0.000s      5.175w     11 calls
JK: AO2USO                  :      0.000u      0.000s      0.000w     10 calls
HF: Form F                  :      0.000u      0.000s      0.000w     10 calls
HF: DIIS                    :      0.100u      0.017s      0.074w     10 calls
DIISManager::add_entry      :      0.000u      0.000s      0.002w      9 calls
DIISManager::extrapolate    :      0.017u      0.000s      0.006w      8 calls
bMatrix setup               :      0.000u      0.000s      0.003w      8 calls
bMatrix pseudoinverse       :      0.000u      0.000s      0.000w      8 calls
New vector                  :      0.017u      0.000s      0.003w      8 calls
HF: Form C                  :      0.233u      0.000s      0.146w     10 calls
HF: Form D                  :      0.000u      0.000s      0.004w     10 calls

-----------------------------------------------------------
JK: (A|mn)                  :      5.500u      0.000s      3.310w      1 calls
JK: (A|Q)^-1/2              :      3.550u      0.033s      2.188w      1 calls
JK: (Q|mn)                  :      9.100u      0.000s      5.463w      1 calls
HF: Form H                  :      0.000u      0.000s      0.001w      1 calls
HF: Form S/X                :      0.017u      0.017s      0.013w      1 calls
HF: Guess                   :      0.233u      0.000s      0.168w      1 calls
| SAD Guess                 :      0.233u      0.000s      0.162w      1 calls
HF: Form G                  :     21.467u      0.333s     13.071w     10 calls
| JK: D                     :      0.000u      0.000s      0.005w     10 calls
| JK: USO2AO                :      0.000u      0.000s      0.000w     10 calls
| JK: JK                    :     21.467u      0.333s     13.065w     10 calls
| | JK: J                   :      0.250u      0.000s      0.184w     11 calls
| | | JK: J1                :      0.100u      0.000s      0.093w     11 calls
| | | JK: J2                :      0.150u      0.000s      0.089w     11 calls
| | JK: K                   :     21.033u      0.000s     12.617w     11 calls
| | | JK: K1                :     12.417u      0.000s      7.441w     11 calls
| | | JK: K2                :      8.617u      0.000s      5.175w     11 calls
| JK: AO2USO                :      0.000u      0.000s      0.000w     10 calls
HF: Form F                  :      0.000u      0.000s      0.000w     10 calls
HF: DIIS                    :      0.100u      0.017s      0.074w     10 calls
| DIISManager::add_entry    :      0.000u      0.000s      0.002w      9 calls
| DIISManager::extrapolate  :      0.017u      0.000s      0.006w      8 calls
| | bMatrix setup           :      0.000u      0.000s      0.003w      8 calls
| | bMatrix pseudoinverse   :      0.000u      0.000s      0.000w      8 calls
| | New vector              :      0.017u      0.000s      0.003w      8 calls
HF: Form C                  :      0.233u      0.000s      0.146w     10 calls
HF: Form D                  :      0.000u      0.000s      0.004w     10 calls

***********************************************************

Host: condos

Timers On : Fri Jun 14 11:28:41 2019
Timers Off: Fri Jun 14 11:28:41 2019

Wall Time:        0.14 seconds


-----------------------------------------------------------

***********************************************************

Host: condos

Timers On : Fri Jun 14 11:28:52 2019
Timers Off: Fri Jun 14 11:28:52 2019

Wall Time:        0.15 seconds


-----------------------------------------------------------

***********************************************************

Host: condos

Timers On : Fri Jun 14 11:29:36 2019
Timers Off: Fri Jun 14 11:29:37 2019

Wall Time:        0.15 seconds


-----------------------------------------------------------

***********************************************************

Host: condos

Timers On : Fri Jun 14 11:29:59 2019
Timers Off: Fri Jun 14 11:30:37 2019

Wall Time:       38.28 seconds

JK: (A|mn)                  :      5.500u      0.000s      3.298w      1 calls
JK: (A|Q)^-1/2              :      3.450u      0.017s      2.084w      1 calls
JK: (Q|mn)                  :      9.067u      0.000s      5.432w      1 calls
HF: Form H                  :      0.000u      0.000s      0.001w      1 calls
HF: Form S/X                :      0.017u      0.000s      0.013w      1 calls
HF: Guess                   :      0.233u      0.000s      0.139w      1 calls
SAD Guess                   :      0.233u      0.000s      0.133w      1 calls
HF: Form G                  :     21.100u      0.317s     12.873w     10 calls
JK: D                       :      0.000u      0.000s      0.004w     10 calls
JK: USO2AO                  :      0.000u      0.000s      0.000w     10 calls
JK: JK                      :     21.100u      0.317s     12.867w     10 calls
JK: J                       :      0.300u      0.000s      0.185w     11 calls
JK: J1                      :      0.150u      0.000s      0.094w     11 calls
JK: J2                      :      0.150u      0.000s      0.090w     11 calls
JK: K                       :     20.700u      0.000s     12.418w     11 calls
JK: K1                      :     12.067u      0.000s      7.241w     11 calls
JK: K2                      :      8.633u      0.000s      5.177w     11 calls
JK: AO2USO                  :      0.000u      0.000s      0.000w     10 calls
HF: Form F                  :      0.000u      0.000s      0.000w     10 calls
HF: DIIS                    :      0.083u      0.050s      0.071w     10 calls
DIISManager::add_entry      :      0.000u      0.000s      0.002w      9 calls
DIISManager::extrapolate    :      0.017u      0.017s      0.006w      8 calls
bMatrix setup               :      0.000u      0.017s      0.003w      8 calls
bMatrix pseudoinverse       :      0.000u      0.000s      0.000w      8 calls
New vector                  :      0.017u      0.000s      0.003w      8 calls
HF: Form C                  :      0.233u      0.017s      0.143w     10 calls
HF: Form D                  :      0.000u      0.000s      0.004w     10 calls

-----------------------------------------------------------
JK: (A|mn)                  :      5.500u      0.000s      3.298w      1 calls
JK: (A|Q)^-1/2              :      3.450u      0.017s      2.084w      1 calls
JK: (Q|mn)                  :      9.067u      0.000s      5.432w      1 calls
HF: Form H                  :      0.000u      0.000s      0.001w      1 calls
HF: Form S/X                :      0.017u      0.000s      0.013w      1 calls
HF: Guess                   :      0.233u      0.000s      0.139w      1 calls
| SAD Guess                 :      0.233u      0.000s      0.133w      1 calls
HF: Form G                  :     21.100u      0.317s     12.873w     10 calls
| JK: D                     :      0.000u      0.000s      0.004w     10 calls
| JK: USO2AO                :      0.000u      0.000s      0.000w     10 calls
| JK: JK                    :     21.100u      0.317s     12.867w     10 calls
| | JK: J                   :      0.300u      0.000s      0.185w     11 calls
| | | JK: J1                :      0.150u      0.000s      0.094w     11 calls
| | | JK: J2                :      0.150u      0.000s      0.090w     11 calls
| | JK: K                   :     20.700u      0.000s     12.418w     11 calls
| | | JK: K1                :     12.067u      0.000s      7.241w     11 calls
| | | JK: K2                :      8.633u      0.000s      5.177w     11 calls
| JK: AO2USO                :      0.000u      0.000s      0.000w     10 calls
HF: Form F                  :      0.000u      0.000s      0.000w     10 calls
HF: DIIS                    :      0.083u      0.050s      0.071w     10 calls
| DIISManager::add_entry    :      0.000u      0.000s      0.002w      9 calls
| DIISManager::extrapolate  :      0.017u      0.017s      0.006w      8 calls
| | bMatrix setup           :      0.000u      0.017s      0.003w      8 calls
| | bMatrix pseudoinverse   :      0.000u      0.000s      0.000w      8 calls
| | New vector              :      0.017u      0.000s      0.003w      8 calls
HF: Form C                  :      0.233u      0.017s      0.143w     10 calls
HF: Form D                  :      0.000u      0.000s      0.004w     10 calls

***********************************************************

Host: condos

Timers On : Fri Jun 14 11:32:07 2019
Timers Off: Fri Jun 14 11:32:46 2019

Wall Time:       38.38 seconds

JK: (A|mn)                  :      5.600u      0.000s      3.364w      1 calls
JK: (A|Q)^-1/2              :      3.433u      0.017s      2.074w      1 calls
JK: (Q|mn)                  :      9.050u      0.000s      5.430w      1 calls
HF: Form H                  :      0.000u      0.000s      0.001w      1 calls
HF: Form S/X                :      0.017u      0.000s      0.013w      1 calls
HF: Guess                   :      0.233u      0.017s      0.139w      1 calls
SAD Guess                   :      0.217u      0.000s      0.133w      1 calls
HF: Form G                  :     21.133u      0.333s     12.911w     10 calls
JK: D                       :      0.000u      0.000s      0.004w     10 calls
JK: USO2AO                  :      0.000u      0.000s      0.000w     10 calls
JK: JK                      :     21.133u      0.333s     12.905w     10 calls
JK: J                       :      0.317u      0.000s      0.186w     11 calls
JK: J1                      :      0.167u      0.000s      0.094w     11 calls
JK: J2                      :      0.150u      0.000s      0.090w     11 calls
JK: K                       :     20.717u      0.000s     12.454w     11 calls
JK: K1                      :     12.050u      0.000s      7.252w     11 calls
JK: K2                      :      8.667u      0.000s      5.202w     11 calls
JK: AO2USO                  :      0.000u      0.000s      0.000w     10 calls
HF: Form F                  :      0.000u      0.000s      0.000w     10 calls
HF: DIIS                    :      0.133u      0.000s      0.071w     10 calls
DIISManager::add_entry      :      0.000u      0.000s      0.002w      9 calls
DIISManager::extrapolate    :      0.017u      0.000s      0.006w      8 calls
bMatrix setup               :      0.017u      0.000s      0.003w      8 calls
bMatrix pseudoinverse       :      0.000u      0.000s      0.000w      8 calls
New vector                  :      0.000u      0.000s      0.003w      8 calls
HF: Form C                  :      0.217u      0.017s      0.144w     10 calls
HF: Form D                  :      0.050u      0.000s      0.004w     10 calls

-----------------------------------------------------------
JK: (A|mn)                  :      5.600u      0.000s      3.364w      1 calls
JK: (A|Q)^-1/2              :      3.433u      0.017s      2.074w      1 calls
JK: (Q|mn)                  :      9.050u      0.000s      5.430w      1 calls
HF: Form H                  :      0.000u      0.000s      0.001w      1 calls
HF: Form S/X                :      0.017u      0.000s      0.013w      1 calls
HF: Guess                   :      0.233u      0.017s      0.139w      1 calls
| SAD Guess                 :      0.217u      0.000s      0.133w      1 calls
HF: Form G                  :     21.133u      0.333s     12.911w     10 calls
| JK: D                     :      0.000u      0.000s      0.004w     10 calls
| JK: USO2AO                :      0.000u      0.000s      0.000w     10 calls
| JK: JK                    :     21.133u      0.333s     12.905w     10 calls
| | JK: J                   :      0.317u      0.000s      0.186w     11 calls
| | | JK: J1                :      0.167u      0.000s      0.094w     11 calls
| | | JK: J2                :      0.150u      0.000s      0.090w     11 calls
| | JK: K                   :     20.717u      0.000s     12.454w     11 calls
| | | JK: K1                :     12.050u      0.000s      7.252w     11 calls
| | | JK: K2                :      8.667u      0.000s      5.202w     11 calls
| JK: AO2USO                :      0.000u      0.000s      0.000w     10 calls
HF: Form F                  :      0.000u      0.000s      0.000w     10 calls
HF: DIIS                    :      0.133u      0.000s      0.071w     10 calls
| DIISManager::add_entry    :      0.000u      0.000s      0.002w      9 calls
| DIISManager::extrapolate  :      0.017u      0.000s      0.006w      8 calls
| | bMatrix setup           :      0.017u      0.000s      0.003w      8 calls
| | bMatrix pseudoinverse   :      0.000u      0.000s      0.000w      8 calls
| | New vector              :      0.000u      0.000s      0.003w      8 calls
HF: Form C                  :      0.217u      0.017s      0.144w     10 calls
HF: Form D                  :      0.050u      0.000s      0.004w     10 calls

***********************************************************

Host: condos

Timers On : Fri Jun 14 11:34:31 2019
Timers Off: Fri Jun 14 11:35:08 2019

Wall Time:       37.56 seconds

JK: (A|mn)                  :      5.483u      0.000s      3.289w      1 calls
JK: (A|Q)^-1/2              :      3.467u      0.017s      2.085w      1 calls
JK: (Q|mn)                  :      9.050u      0.000s      5.428w      1 calls
HF: Form H                  :      0.000u      0.017s      0.001w      1 calls
HF: Form S/X                :      0.017u      0.000s      0.013w      1 calls
HF: Guess                   :      0.217u      0.000s      0.139w      1 calls
SAD Guess                   :      0.217u      0.000s      0.133w      1 calls
HF: Form G                  :     20.550u      0.317s     12.532w     10 calls
JK: D                       :      0.017u      0.000s      0.004w     10 calls
JK: USO2AO                  :      0.000u      0.000s      0.000w     10 calls
JK: JK                      :     20.533u      0.317s     12.526w     10 calls
JK: J                       :      0.300u      0.000s      0.183w     11 calls
JK: J1                      :      0.133u      0.000s      0.094w     11 calls
JK: J2                      :      0.150u      0.000s      0.088w     11 calls
JK: K                       :     20.117u      0.000s     12.074w     11 calls
JK: K1                      :     11.500u      0.000s      6.911w     11 calls
JK: K2                      :      8.617u      0.000s      5.163w     11 calls
JK: AO2USO                  :      0.000u      0.000s      0.000w     10 calls
HF: Form F                  :      0.000u      0.000s      0.000w     10 calls
HF: DIIS                    :      0.083u      0.017s      0.071w     10 calls
DIISManager::add_entry      :      0.000u      0.000s      0.002w      9 calls
DIISManager::extrapolate    :      0.017u      0.000s      0.006w      8 calls
bMatrix setup               :      0.017u      0.000s      0.003w      8 calls
bMatrix pseudoinverse       :      0.000u      0.000s      0.000w      8 calls
New vector                  :      0.000u      0.000s      0.003w      8 calls
HF: Form C                  :      0.233u      0.033s      0.144w     10 calls
HF: Form D                  :      0.000u      0.000s      0.004w     10 calls

-----------------------------------------------------------
JK: (A|mn)                  :      5.483u      0.000s      3.289w      1 calls
JK: (A|Q)^-1/2              :      3.467u      0.017s      2.085w      1 calls
JK: (Q|mn)                  :      9.050u      0.000s      5.428w      1 calls
HF: Form H                  :      0.000u      0.017s      0.001w      1 calls
HF: Form S/X                :      0.017u      0.000s      0.013w      1 calls
HF: Guess                   :      0.217u      0.000s      0.139w      1 calls
| SAD Guess                 :      0.217u      0.000s      0.133w      1 calls
HF: Form G                  :     20.550u      0.317s     12.532w     10 calls
| JK: D                     :      0.017u      0.000s      0.004w     10 calls
| JK: USO2AO                :      0.000u      0.000s      0.000w     10 calls
| JK: JK                    :     20.533u      0.317s     12.526w     10 calls
| | JK: J                   :      0.300u      0.000s      0.183w     11 calls
| | | JK: J1                :      0.133u      0.000s      0.094w     11 calls
| | | JK: J2                :      0.150u      0.000s      0.088w     11 calls
| | JK: K                   :     20.117u      0.000s     12.074w     11 calls
| | | JK: K1                :     11.500u      0.000s      6.911w     11 calls
| | | JK: K2                :      8.617u      0.000s      5.163w     11 calls
| JK: AO2USO                :      0.000u      0.000s      0.000w     10 calls
HF: Form F                  :      0.000u      0.000s      0.000w     10 calls
HF: DIIS                    :      0.083u      0.017s      0.071w     10 calls
| DIISManager::add_entry    :      0.000u      0.000s      0.002w      9 calls
| DIISManager::extrapolate  :      0.017u      0.000s      0.006w      8 calls
| | bMatrix setup           :      0.017u      0.000s      0.003w      8 calls
| | bMatrix pseudoinverse   :      0.000u      0.000s      0.000w      8 calls
| | New vector              :      0.000u      0.000s      0.003w      8 calls
HF: Form C                  :      0.233u      0.033s      0.144w     10 calls
HF: Form D                  :      0.000u      0.000s      0.004w     10 calls

***********************************************************

Host: condos

Timers On : Fri Jun 14 11:35:21 2019
Timers Off: Fri Jun 14 11:35:59 2019

Wall Time:       38.10 seconds

JK: (A|mn)                  :      5.483u      0.000s      3.285w      1 calls
JK: (A|Q)^-1/2              :      3.500u      0.017s      2.107w      1 calls
JK: (Q|mn)                  :      9.250u      0.000s      5.552w      1 calls
HF: Form H                  :      0.000u      0.000s      0.113w      1 calls
HF: Form S/X                :      0.033u      0.000s      0.019w      1 calls
HF: Guess                   :      0.233u      0.000s      0.139w      1 calls
SAD Guess                   :      0.233u      0.000s      0.133w      1 calls
HF: Form G                  :     21.267u      0.350s     12.981w     10 calls
JK: D                       :      0.000u      0.000s      0.004w     10 calls
JK: USO2AO                  :      0.000u      0.000s      0.000w     10 calls
JK: JK                      :     21.267u      0.350s     12.975w     10 calls
JK: J                       :      0.267u      0.000s      0.185w     11 calls
JK: J1                      :      0.100u      0.000s      0.094w     11 calls
JK: J2                      :      0.150u      0.000s      0.089w     11 calls
JK: K                       :     20.883u      0.000s     12.522w     11 calls
JK: K1                      :     12.083u      0.000s      7.250w     11 calls
JK: K2                      :      8.800u      0.000s      5.272w     11 calls
JK: AO2USO                  :      0.000u      0.000s      0.000w     10 calls
HF: Form F                  :      0.000u      0.000s      0.000w     10 calls
HF: DIIS                    :      0.083u      0.000s      0.071w     10 calls
DIISManager::add_entry      :      0.000u      0.000s      0.002w      9 calls
DIISManager::extrapolate    :      0.017u      0.000s      0.006w      8 calls
bMatrix setup               :      0.000u      0.000s      0.003w      8 calls
bMatrix pseudoinverse       :      0.000u      0.000s      0.000w      8 calls
New vector                  :      0.017u      0.000s      0.003w      8 calls
HF: Form C                  :      0.267u      0.000s      0.144w     10 calls
HF: Form D                  :      0.017u      0.000s      0.004w     10 calls

-----------------------------------------------------------
JK: (A|mn)                  :      5.483u      0.000s      3.285w      1 calls
JK: (A|Q)^-1/2              :      3.500u      0.017s      2.107w      1 calls
JK: (Q|mn)                  :      9.250u      0.000s      5.552w      1 calls
HF: Form H                  :      0.000u      0.000s      0.113w      1 calls
HF: Form S/X                :      0.033u      0.000s      0.019w      1 calls
HF: Guess                   :      0.233u      0.000s      0.139w      1 calls
| SAD Guess                 :      0.233u      0.000s      0.133w      1 calls
HF: Form G                  :     21.267u      0.350s     12.981w     10 calls
| JK: D                     :      0.000u      0.000s      0.004w     10 calls
| JK: USO2AO                :      0.000u      0.000s      0.000w     10 calls
| JK: JK                    :     21.267u      0.350s     12.975w     10 calls
| | JK: J                   :      0.267u      0.000s      0.185w     11 calls
| | | JK: J1                :      0.100u      0.000s      0.094w     11 calls
| | | JK: J2                :      0.150u      0.000s      0.089w     11 calls
| | JK: K                   :     20.883u      0.000s     12.522w     11 calls
| | | JK: K1                :     12.083u      0.000s      7.250w     11 calls
| | | JK: K2                :      8.800u      0.000s      5.272w     11 calls
| JK: AO2USO                :      0.000u      0.000s      0.000w     10 calls
HF: Form F                  :      0.000u      0.000s      0.000w     10 calls
HF: DIIS                    :      0.083u      0.000s      0.071w     10 calls
| DIISManager::add_entry    :      0.000u      0.000s      0.002w      9 calls
| DIISManager::extrapolate  :      0.017u      0.000s      0.006w      8 calls
| | bMatrix setup           :      0.000u      0.000s      0.003w      8 calls
| | bMatrix pseudoinverse   :      0.000u      0.000s      0.000w      8 calls
| | New vector              :      0.017u      0.000s      0.003w      8 calls
HF: Form C                  :      0.267u      0.000s      0.144w     10 calls
HF: Form D                  :      0.017u      0.000s      0.004w     10 calls

***********************************************************

Host: condos

Timers On : Fri Jun 14 11:37:14 2019
Timers Off: Fri Jun 14 11:37:53 2019

Wall Time:       38.12 seconds

JK: (A|mn)                  :      5.517u      0.000s      3.314w      1 calls
JK: (A|Q)^-1/2              :      3.450u      0.033s      2.079w      1 calls
JK: (Q|mn)                  :      9.083u      0.000s      5.455w      1 calls
HF: Form H                  :      0.000u      0.000s      0.001w      1 calls
HF: Form S/X                :      0.033u      0.017s      0.013w      1 calls
HF: Guess                   :      0.233u      0.000s      0.139w      1 calls
SAD Guess                   :      0.233u      0.000s      0.134w      1 calls
HF: Form G                  :     21.067u      0.400s     12.899w     10 calls
JK: D                       :      0.017u      0.017s      0.004w     10 calls
JK: USO2AO                  :      0.000u      0.000s      0.000w     10 calls
JK: JK                      :     21.050u      0.367s     12.892w     10 calls
JK: J                       :      0.300u      0.000s      0.185w     11 calls
JK: J1                      :      0.150u      0.000s      0.094w     11 calls
JK: J2                      :      0.150u      0.000s      0.089w     11 calls
JK: K                       :     20.717u      0.000s     12.441w     11 calls
JK: K1                      :     12.050u      0.000s      7.233w     11 calls
JK: K2                      :      8.667u      0.000s      5.207w     11 calls
JK: AO2USO                  :      0.000u      0.000s      0.000w     10 calls
HF: Form F                  :      0.000u      0.000s      0.000w     10 calls
HF: DIIS                    :      0.133u      0.017s      0.071w     10 calls
DIISManager::add_entry      :      0.000u      0.000s      0.002w      9 calls
DIISManager::extrapolate    :      0.017u      0.000s      0.006w      8 calls
bMatrix setup               :      0.000u      0.000s      0.003w      8 calls
bMatrix pseudoinverse       :      0.000u      0.000s      0.000w      8 calls
New vector                  :      0.017u      0.000s      0.003w      8 calls
HF: Form C                  :      0.217u      0.000s      0.144w     10 calls
HF: Form D                  :      0.000u      0.000s      0.004w     10 calls

-----------------------------------------------------------
JK: (A|mn)                  :      5.517u      0.000s      3.314w      1 calls
JK: (A|Q)^-1/2              :      3.450u      0.033s      2.079w      1 calls
JK: (Q|mn)                  :      9.083u      0.000s      5.455w      1 calls
HF: Form H                  :      0.000u      0.000s      0.001w      1 calls
HF: Form S/X                :      0.033u      0.017s      0.013w      1 calls
HF: Guess                   :      0.233u      0.000s      0.139w      1 calls
| SAD Guess                 :      0.233u      0.000s      0.134w      1 calls
HF: Form G                  :     21.067u      0.400s     12.899w     10 calls
| JK: D                     :      0.017u      0.017s      0.004w     10 calls
| JK: USO2AO                :      0.000u      0.000s      0.000w     10 calls
| JK: JK                    :     21.050u      0.367s     12.892w     10 calls
| | JK: J                   :      0.300u      0.000s      0.185w     11 calls
| | | JK: J1                :      0.150u      0.000s      0.094w     11 calls
| | | JK: J2                :      0.150u      0.000s      0.089w     11 calls
| | JK: K                   :     20.717u      0.000s     12.441w     11 calls
| | | JK: K1                :     12.050u      0.000s      7.233w     11 calls
| | | JK: K2                :      8.667u      0.000s      5.207w     11 calls
| JK: AO2USO                :      0.000u      0.000s      0.000w     10 calls
HF: Form F                  :      0.000u      0.000s      0.000w     10 calls
HF: DIIS                    :      0.133u      0.017s      0.071w     10 calls
| DIISManager::add_entry    :      0.000u      0.000s      0.002w      9 calls
| DIISManager::extrapolate  :      0.017u      0.000s      0.006w      8 calls
| | bMatrix setup           :      0.000u      0.000s      0.003w      8 calls
| | bMatrix pseudoinverse   :      0.000u      0.000s      0.000w      8 calls
| | New vector              :      0.017u      0.000s      0.003w      8 calls
HF: Form C                  :      0.217u      0.000s      0.144w     10 calls
HF: Form D                  :      0.000u      0.000s      0.004w     10 calls

***********************************************************

Host: condos

Timers On : Fri Jun 14 11:41:54 2019
Timers Off: Fri Jun 14 11:42:32 2019

Wall Time:       38.11 seconds

JK: (A|mn)                  :      5.417u      0.000s      3.255w      1 calls
JK: (A|Q)^-1/2              :      3.467u      0.000s      2.091w      1 calls
JK: (Q|mn)                  :      9.050u      0.000s      5.431w      1 calls
HF: Form H                  :      0.000u      0.000s      0.001w      1 calls
HF: Form S/X                :      0.017u      0.000s      0.013w      1 calls
HF: Guess                   :      0.217u      0.000s      0.138w      1 calls
SAD Guess                   :      0.217u      0.000s      0.133w      1 calls
HF: Form G                  :     21.117u      0.383s     12.893w     10 calls
JK: D                       :      0.000u      0.000s      0.004w     10 calls
JK: USO2AO                  :      0.000u      0.000s      0.000w     10 calls
JK: JK                      :     21.100u      0.383s     12.887w     10 calls
JK: J                       :      0.317u      0.017s      0.185w     11 calls
JK: J1                      :      0.167u      0.017s      0.095w     11 calls
JK: J2                      :      0.150u      0.000s      0.089w     11 calls
JK: K                       :     20.733u      0.000s     12.437w     11 calls
JK: K1                      :     12.117u      0.000s      7.253w     11 calls
JK: K2                      :      8.617u      0.000s      5.183w     11 calls
JK: AO2USO                  :      0.000u      0.000s      0.000w     10 calls
HF: Form F                  :      0.000u      0.000s      0.000w     10 calls
HF: DIIS                    :      0.100u      0.000s      0.071w     10 calls
DIISManager::add_entry      :      0.000u      0.000s      0.002w      9 calls
DIISManager::extrapolate    :      0.017u      0.000s      0.006w      8 calls
bMatrix setup               :      0.000u      0.000s      0.003w      8 calls
bMatrix pseudoinverse       :      0.000u      0.000s      0.000w      8 calls
New vector                  :      0.017u      0.000s      0.003w      8 calls
HF: Form C                  :      0.250u      0.000s      0.143w     10 calls
HF: Form D                  :      0.000u      0.000s      0.004w     10 calls

-----------------------------------------------------------
JK: (A|mn)                  :      5.417u      0.000s      3.255w      1 calls
JK: (A|Q)^-1/2              :      3.467u      0.000s      2.091w      1 calls
JK: (Q|mn)                  :      9.050u      0.000s      5.431w      1 calls
HF: Form H                  :      0.000u      0.000s      0.001w      1 calls
HF: Form S/X                :      0.017u      0.000s      0.013w      1 calls
HF: Guess                   :      0.217u      0.000s      0.138w      1 calls
| SAD Guess                 :      0.217u      0.000s      0.133w      1 calls
HF: Form G                  :     21.117u      0.383s     12.893w     10 calls
| JK: D                     :      0.000u      0.000s      0.004w     10 calls
| JK: USO2AO                :      0.000u      0.000s      0.000w     10 calls
| JK: JK                    :     21.100u      0.383s     12.887w     10 calls
| | JK: J                   :      0.317u      0.017s      0.185w     11 calls
| | | JK: J1                :      0.167u      0.017s      0.095w     11 calls
| | | JK: J2                :      0.150u      0.000s      0.089w     11 calls
| | JK: K                   :     20.733u      0.000s     12.437w     11 calls
| | | JK: K1                :     12.117u      0.000s      7.253w     11 calls
| | | JK: K2                :      8.617u      0.000s      5.183w     11 calls
| JK: AO2USO                :      0.000u      0.000s      0.000w     10 calls
HF: Form F                  :      0.000u      0.000s      0.000w     10 calls
HF: DIIS                    :      0.100u      0.000s      0.071w     10 calls
| DIISManager::add_entry    :      0.000u      0.000s      0.002w      9 calls
| DIISManager::extrapolate  :      0.017u      0.000s      0.006w      8 calls
| | bMatrix setup           :      0.000u      0.000s      0.003w      8 calls
| | bMatrix pseudoinverse   :      0.000u      0.000s      0.000w      8 calls
| | New vector              :      0.017u      0.000s      0.003w      8 calls
HF: Form C                  :      0.250u      0.000s      0.143w     10 calls
HF: Form D                  :      0.000u      0.000s      0.004w     10 calls

***********************************************************

Host: condos

Timers On : Fri Jun 14 11:45:15 2019
Timers Off: Fri Jun 14 11:45:55 2019

Wall Time:       39.08 seconds

JK: (A|mn)                  :      5.733u      0.000s      3.439w      1 calls
JK: (A|Q)^-1/2              :      3.483u      0.017s      2.105w      1 calls
JK: (Q|mn)                  :      9.183u      0.000s      5.512w      1 calls
HF: Form H                  :      0.000u      0.000s      0.001w      1 calls
HF: Form S/X                :      0.033u      0.000s      0.013w      1 calls
HF: Guess                   :      0.233u      0.000s      0.138w      1 calls
SAD Guess                   :      0.233u      0.000s      0.133w      1 calls
HF: Form G                  :     22.183u      0.350s     13.533w     10 calls
JK: D                       :      0.017u      0.000s      0.005w     10 calls
JK: USO2AO                  :      0.000u      0.000s      0.000w     10 calls
JK: JK                      :     22.167u      0.333s     13.527w     10 calls
JK: J                       :      0.333u      0.033s      0.195w     11 calls
JK: J1                      :      0.167u      0.033s      0.101w     11 calls
JK: J2                      :      0.167u      0.000s      0.092w     11 calls
JK: K                       :     21.717u      0.000s     13.061w     11 calls
JK: K1                      :     13.000u      0.000s      7.814w     11 calls
JK: K2                      :      8.717u      0.000s      5.247w     11 calls
JK: AO2USO                  :      0.000u      0.000s      0.000w     10 calls
HF: Form F                  :      0.000u      0.000s      0.001w     10 calls
HF: DIIS                    :      0.133u      0.017s      0.072w     10 calls
DIISManager::add_entry      :      0.000u      0.000s      0.002w      9 calls
DIISManager::extrapolate    :      0.017u      0.000s      0.006w      8 calls
bMatrix setup               :      0.017u      0.000s      0.003w      8 calls
bMatrix pseudoinverse       :      0.000u      0.000s      0.000w      8 calls
New vector                  :      0.000u      0.000s      0.003w      8 calls
HF: Form C                  :      0.200u      0.017s      0.147w     10 calls
HF: Form D                  :      0.017u      0.000s      0.004w     10 calls

-----------------------------------------------------------
JK: (A|mn)                  :      5.733u      0.000s      3.439w      1 calls
JK: (A|Q)^-1/2              :      3.483u      0.017s      2.105w      1 calls
JK: (Q|mn)                  :      9.183u      0.000s      5.512w      1 calls
HF: Form H                  :      0.000u      0.000s      0.001w      1 calls
HF: Form S/X                :      0.033u      0.000s      0.013w      1 calls
HF: Guess                   :      0.233u      0.000s      0.138w      1 calls
| SAD Guess                 :      0.233u      0.000s      0.133w      1 calls
HF: Form G                  :     22.183u      0.350s     13.533w     10 calls
| JK: D                     :      0.017u      0.000s      0.005w     10 calls
| JK: USO2AO                :      0.000u      0.000s      0.000w     10 calls
| JK: JK                    :     22.167u      0.333s     13.527w     10 calls
| | JK: J                   :      0.333u      0.033s      0.195w     11 calls
| | | JK: J1                :      0.167u      0.033s      0.101w     11 calls
| | | JK: J2                :      0.167u      0.000s      0.092w     11 calls
| | JK: K                   :     21.717u      0.000s     13.061w     11 calls
| | | JK: K1                :     13.000u      0.000s      7.814w     11 calls
| | | JK: K2                :      8.717u      0.000s      5.247w     11 calls
| JK: AO2USO                :      0.000u      0.000s      0.000w     10 calls
HF: Form F                  :      0.000u      0.000s      0.001w     10 calls
HF: DIIS                    :      0.133u      0.017s      0.072w     10 calls
| DIISManager::add_entry    :      0.000u      0.000s      0.002w      9 calls
| DIISManager::extrapolate  :      0.017u      0.000s      0.006w      8 calls
| | bMatrix setup           :      0.017u      0.000s      0.003w      8 calls
| | bMatrix pseudoinverse   :      0.000u      0.000s      0.000w      8 calls
| | New vector              :      0.000u      0.000s      0.003w      8 calls
HF: Form C                  :      0.200u      0.017s      0.147w     10 calls
HF: Form D                  :      0.017u      0.000s      0.004w     10 calls

***********************************************************

Host: condos

Timers On : Fri Jun 14 11:47:29 2019
Timers Off: Fri Jun 14 11:48:07 2019

Wall Time:       37.92 seconds

JK: (A|mn)                  :      5.467u      0.000s      3.277w      1 calls
JK: (A|Q)^-1/2              :      3.467u      0.017s      2.095w      1 calls
JK: (Q|mn)                  :      9.100u      0.000s      5.466w      1 calls
HF: Form H                  :      0.000u      0.000s      0.001w      1 calls
HF: Form S/X                :      0.033u      0.000s      0.013w      1 calls
HF: Guess                   :      0.233u      0.000s      0.138w      1 calls
SAD Guess                   :      0.233u      0.000s      0.133w      1 calls
HF: Form G                  :     20.567u      0.367s     12.578w     10 calls
JK: D                       :      0.017u      0.000s      0.004w     10 calls
JK: USO2AO                  :      0.000u      0.000s      0.000w     10 calls
JK: JK                      :     20.550u      0.350s     12.572w     10 calls
JK: J                       :      0.283u      0.017s      0.180w     11 calls
JK: J1                      :      0.150u      0.017s      0.091w     11 calls
JK: J2                      :      0.133u      0.000s      0.087w     11 calls
JK: K                       :     20.217u      0.000s     12.127w     11 calls
JK: K1                      :     11.583u      0.000s      6.940w     11 calls
JK: K2                      :      8.633u      0.000s      5.187w     11 calls
JK: AO2USO                  :      0.000u      0.000s      0.000w     10 calls
HF: Form F                  :      0.000u      0.000s      0.000w     10 calls
HF: DIIS                    :      0.117u      0.033s      0.070w     10 calls
DIISManager::add_entry      :      0.000u      0.000s      0.002w      9 calls
DIISManager::extrapolate    :      0.017u      0.000s      0.006w      8 calls
bMatrix setup               :      0.017u      0.000s      0.003w      8 calls
bMatrix pseudoinverse       :      0.000u      0.000s      0.000w      8 calls
New vector                  :      0.000u      0.000s      0.003w      8 calls
HF: Form C                  :      0.233u      0.000s      0.143w     10 calls
HF: Form D                  :      0.000u      0.000s      0.004w     10 calls

-----------------------------------------------------------
JK: (A|mn)                  :      5.467u      0.000s      3.277w      1 calls
JK: (A|Q)^-1/2              :      3.467u      0.017s      2.095w      1 calls
JK: (Q|mn)                  :      9.100u      0.000s      5.466w      1 calls
HF: Form H                  :      0.000u      0.000s      0.001w      1 calls
HF: Form S/X                :      0.033u      0.000s      0.013w      1 calls
HF: Guess                   :      0.233u      0.000s      0.138w      1 calls
| SAD Guess                 :      0.233u      0.000s      0.133w      1 calls
HF: Form G                  :     20.567u      0.367s     12.578w     10 calls
| JK: D                     :      0.017u      0.000s      0.004w     10 calls
| JK: USO2AO                :      0.000u      0.000s      0.000w     10 calls
| JK: JK                    :     20.550u      0.350s     12.572w     10 calls
| | JK: J                   :      0.283u      0.017s      0.180w     11 calls
| | | JK: J1                :      0.150u      0.017s      0.091w     11 calls
| | | JK: J2                :      0.133u      0.000s      0.087w     11 calls
| | JK: K                   :     20.217u      0.000s     12.127w     11 calls
| | | JK: K1                :     11.583u      0.000s      6.940w     11 calls
| | | JK: K2                :      8.633u      0.000s      5.187w     11 calls
| JK: AO2USO                :      0.000u      0.000s      0.000w     10 calls
HF: Form F                  :      0.000u      0.000s      0.000w     10 calls
HF: DIIS                    :      0.117u      0.033s      0.070w     10 calls
| DIISManager::add_entry    :      0.000u      0.000s      0.002w      9 calls
| DIISManager::extrapolate  :      0.017u      0.000s      0.006w      8 calls
| | bMatrix setup           :      0.017u      0.000s      0.003w      8 calls
| | bMatrix pseudoinverse   :      0.000u      0.000s      0.000w      8 calls
| | New vector              :      0.000u      0.000s      0.003w      8 calls
HF: Form C                  :      0.233u      0.000s      0.143w     10 calls
HF: Form D                  :      0.000u      0.000s      0.004w     10 calls

***********************************************************

Host: albemarle

Timers On : Fri Jun 14 12:14:56 2019
Timers Off: Fri Jun 14 12:15:47 2019

Wall Time:       51.46 seconds

                                                       Time (seconds)
Module                                       User      System        Wall        Calls
DFH: sparsity prep                  :      0.133u      0.000s      0.215w      1 calls
JK: (A|mn)                          :     11.500u      0.017s      6.953w      1 calls
JK: (A|Q)^-1/2                      :      5.467u      0.033s      3.354w      1 calls
JK: (Q|mn)                          :      5.133u      0.000s      3.078w      1 calls
HF: Form core H                     :      0.000u      0.000s      0.002w      1 calls
HF: Form S/X                        :      0.033u      0.000s      0.017w      1 calls
HF: Guess                           :      0.317u      0.000s      0.213w      1 calls
SAD Guess                           :      0.317u      0.000s      0.207w      1 calls
HF: Form G                          :     17.767u      0.617s     11.042w      9 calls
JK: D                               :      0.017u      0.000s      0.003w      9 calls
JK: USO2AO                          :      0.000u      0.000s      0.001w      9 calls
JK: JK                              :     17.750u      0.617s     11.034w      9 calls
JK: J                               :      0.600u      0.000s      0.359w      9 calls
JK: J1                              :      0.333u      0.000s      0.194w      9 calls
JK: J2                              :      0.267u      0.000s      0.162w      9 calls
JK: K                               :     17.000u      0.017s     10.209w      9 calls
JK: K1                              :     12.867u      0.000s      7.724w      9 calls
JK: K2                              :      4.133u      0.017s      2.485w      9 calls
JK: AO2USO                          :      0.000u      0.000s      0.000w      9 calls
HF: Form F                          :      0.000u      0.000s      0.001w      9 calls
HF: Form D                          :      0.017u      0.000s      0.003w      9 calls
HF: DIIS                            :      0.100u      0.000s      0.052w      8 calls
DIISManager::add_entry              :      0.033u      0.000s      0.003w      8 calls
DIISManager::extrapolate            :      0.000u      0.000s      0.009w      8 calls
bMatrix setup                       :      0.000u      0.000s      0.004w      8 calls
bMatrix pseudoinverse               :      0.000u      0.000s      0.000w      8 calls
New vector                          :      0.000u      0.000s      0.005w      8 calls
HF: Form C                          :      0.183u      0.017s      0.131w      8 calls

--------------------------------------------------------------------------------------
DFH: sparsity prep                  :      0.133u      0.000s      0.215w      1 calls
JK: (A|mn)                          :     11.500u      0.017s      6.953w      1 calls
JK: (A|Q)^-1/2                      :      5.467u      0.033s      3.354w      1 calls
JK: (Q|mn)                          :      5.133u      0.000s      3.078w      1 calls
HF: Form core H                     :      0.000u      0.000s      0.002w      1 calls
HF: Form S/X                        :      0.033u      0.000s      0.017w      1 calls
HF: Guess                           :      0.317u      0.000s      0.213w      1 calls
| SAD Guess                         :      0.317u      0.000s      0.207w      1 calls
HF: Form G                          :     17.767u      0.617s     11.042w      9 calls
| JK: D                             :      0.017u      0.000s      0.003w      9 calls
| JK: USO2AO                        :      0.000u      0.000s      0.001w      9 calls
| JK: JK                            :     17.750u      0.617s     11.034w      9 calls
| | JK: J                           :      0.600u      0.000s      0.359w      9 calls
| | | JK: J1                        :      0.333u      0.000s      0.194w      9 calls
| | | JK: J2                        :      0.267u      0.000s      0.162w      9 calls
| | JK: K                           :     17.000u      0.017s     10.209w      9 calls
| | | JK: K1                        :     12.867u      0.000s      7.724w      9 calls
| | | JK: K2                        :      4.133u      0.017s      2.485w      9 calls
| JK: AO2USO                        :      0.000u      0.000s      0.000w      9 calls
HF: Form F                          :      0.000u      0.000s      0.001w      9 calls
HF: Form D                          :      0.017u      0.000s      0.003w      9 calls
HF: DIIS                            :      0.100u      0.000s      0.052w      8 calls
| DIISManager::add_entry            :      0.033u      0.000s      0.003w      8 calls
| DIISManager::extrapolate          :      0.000u      0.000s      0.009w      8 calls
| | bMatrix setup                   :      0.000u      0.000s      0.004w      8 calls
| | bMatrix pseudoinverse           :      0.000u      0.000s      0.000w      8 calls
| | New vector                      :      0.000u      0.000s      0.005w      8 calls
HF: Form C                          :      0.183u      0.017s      0.131w      8 calls

**************************************************************************************

Host: albemarle

Timers On : Fri Jun 14 12:56:20 2019
Timers Off: Fri Jun 14 12:57:10 2019

Wall Time:       49.63 seconds

                                                       Time (seconds)
Module                                       User      System        Wall        Calls
DFH: sparsity prep                  :      0.100u      0.017s      0.073w      1 calls
JK: (A|mn)                          :     11.233u      0.000s      6.743w      1 calls
JK: (A|Q)^-1/2                      :      5.467u      0.050s      3.312w      1 calls
JK: (Q|mn)                          :      5.200u      0.000s      3.122w      1 calls
HF: Form core H                     :      0.000u      0.000s      0.003w      1 calls
HF: Form S/X                        :      0.033u      0.000s      0.021w      1 calls
HF: Guess                           :      0.317u      0.000s      0.188w      1 calls
SAD Guess                           :      0.300u      0.000s      0.182w      1 calls
HF: Form G                          :     17.983u      0.633s     11.154w      9 calls
JK: D                               :      0.017u      0.000s      0.003w      9 calls
JK: USO2AO                          :      0.000u      0.000s      0.001w      9 calls
JK: JK                              :     17.967u      0.633s     11.147w      9 calls
JK: J                               :      0.617u      0.000s      0.367w      9 calls
JK: J1                              :      0.333u      0.000s      0.196w      9 calls
JK: J2                              :      0.283u      0.000s      0.168w      9 calls
JK: K                               :     17.083u      0.000s     10.298w      9 calls
JK: K1                              :     12.950u      0.000s      7.791w      9 calls
JK: K2                              :      4.133u      0.000s      2.507w      9 calls
JK: AO2USO                          :      0.000u      0.000s      0.000w      9 calls
HF: Form F                          :      0.000u      0.000s      0.001w      9 calls
HF: Form D                          :      0.000u      0.000s      0.003w      9 calls
HF: DIIS                            :      0.083u      0.000s      0.052w      8 calls
DIISManager::add_entry              :      0.017u      0.000s      0.003w      8 calls
DIISManager::extrapolate            :      0.033u      0.000s      0.009w      8 calls
bMatrix setup                       :      0.017u      0.000s      0.004w      8 calls
bMatrix pseudoinverse               :      0.000u      0.000s      0.000w      8 calls
New vector                          :      0.017u      0.000s      0.005w      8 calls
HF: Form C                          :      0.200u      0.000s      0.130w      8 calls

--------------------------------------------------------------------------------------
DFH: sparsity prep                  :      0.100u      0.017s      0.073w      1 calls
JK: (A|mn)                          :     11.233u      0.000s      6.743w      1 calls
JK: (A|Q)^-1/2                      :      5.467u      0.050s      3.312w      1 calls
JK: (Q|mn)                          :      5.200u      0.000s      3.122w      1 calls
HF: Form core H                     :      0.000u      0.000s      0.003w      1 calls
HF: Form S/X                        :      0.033u      0.000s      0.021w      1 calls
HF: Guess                           :      0.317u      0.000s      0.188w      1 calls
| SAD Guess                         :      0.300u      0.000s      0.182w      1 calls
HF: Form G                          :     17.983u      0.633s     11.154w      9 calls
| JK: D                             :      0.017u      0.000s      0.003w      9 calls
| JK: USO2AO                        :      0.000u      0.000s      0.001w      9 calls
| JK: JK                            :     17.967u      0.633s     11.147w      9 calls
| | JK: J                           :      0.617u      0.000s      0.367w      9 calls
| | | JK: J1                        :      0.333u      0.000s      0.196w      9 calls
| | | JK: J2                        :      0.283u      0.000s      0.168w      9 calls
| | JK: K                           :     17.083u      0.000s     10.298w      9 calls
| | | JK: K1                        :     12.950u      0.000s      7.791w      9 calls
| | | JK: K2                        :      4.133u      0.000s      2.507w      9 calls
| JK: AO2USO                        :      0.000u      0.000s      0.000w      9 calls
HF: Form F                          :      0.000u      0.000s      0.001w      9 calls
HF: Form D                          :      0.000u      0.000s      0.003w      9 calls
HF: DIIS                            :      0.083u      0.000s      0.052w      8 calls
| DIISManager::add_entry            :      0.017u      0.000s      0.003w      8 calls
| DIISManager::extrapolate          :      0.033u      0.000s      0.009w      8 calls
| | bMatrix setup                   :      0.017u      0.000s      0.004w      8 calls
| | bMatrix pseudoinverse           :      0.000u      0.000s      0.000w      8 calls
| | New vector                      :      0.017u      0.000s      0.005w      8 calls
HF: Form C                          :      0.200u      0.000s      0.130w      8 calls

**************************************************************************************

Host: albemarle

Timers On : Fri Jun 14 13:32:38 2019
Timers Off: Fri Jun 14 13:32:39 2019

Wall Time:        0.67 seconds

                                                       Time (seconds)
Module                                       User      System        Wall        Calls

--------------------------------------------------------------------------------------

**************************************************************************************

Host: albemarle

Timers On : Fri Jun 14 13:33:27 2019
Timers Off: Fri Jun 14 13:33:30 2019

Wall Time:        2.84 seconds

                                                       Time (seconds)
Module                                       User      System        Wall        Calls
DFH: sparsity prep                  :      0.033u      0.000s      0.020w      1 calls
DFH: initialize()                   :      0.467u      0.017s      0.291w      1 calls
DFH: AO Construction                :      0.133u      0.017s      0.083w      1 calls
DFH: AO-Met. Contraction            :      0.133u      0.000s      0.079w      1 calls
HF: Form core H                     :      0.000u      0.000s      0.001w      1 calls
HF: Form S/X                        :      0.000u      0.000s      0.001w      1 calls
HF: Guess                           :      0.300u      0.017s      0.186w      1 calls
SAD Guess                           :      0.283u      0.017s      0.179w      1 calls
HF: Form G                          :      0.283u      0.000s      0.167w     10 calls
JK: D                               :      0.000u      0.000s      0.000w     10 calls
JK: USO2AO                          :      0.017u      0.000s      0.001w     10 calls
JK: JK                              :      0.267u      0.000s      0.163w     10 calls
DFH: compute_JK()                   :      0.267u      0.000s      0.163w     10 calls
DFH: Grabbing AOs                   :      0.000u      0.000s      0.000w     10 calls
DFH: compute_J                      :      0.050u      0.000s      0.025w     10 calls
DFH: compute_K                      :      0.217u      0.000s      0.138w     10 calls
JK: AO2USO                          :      0.000u      0.000s      0.002w     10 calls
HF: Form F                          :      0.000u      0.000s      0.000w     10 calls
HF: Form D                          :      0.000u      0.000s      0.000w     10 calls
HF: DIIS                            :      0.017u      0.000s      0.007w      9 calls
DIISManager::add_entry              :      0.000u      0.000s      0.001w      9 calls
DIISManager::extrapolate            :      0.017u      0.000s      0.002w      9 calls
bMatrix setup                       :      0.000u      0.000s      0.001w      9 calls
bMatrix pseudoinverse               :      0.000u      0.000s      0.000w      9 calls
New vector                          :      0.017u      0.000s      0.000w      9 calls
HF: Form C                          :      0.000u      0.000s      0.005w      9 calls

--------------------------------------------------------------------------------------
DFH: sparsity prep                  :      0.033u      0.000s      0.020w      1 calls
DFH: initialize()                   :      0.467u      0.017s      0.291w      1 calls
| DFH: AO Construction              :      0.133u      0.017s      0.083w      1 calls
| DFH: AO-Met. Contraction          :      0.133u      0.000s      0.079w      1 calls
HF: Form core H                     :      0.000u      0.000s      0.001w      1 calls
HF: Form S/X                        :      0.000u      0.000s      0.001w      1 calls
HF: Guess                           :      0.300u      0.017s      0.186w      1 calls
| SAD Guess                         :      0.283u      0.017s      0.179w      1 calls
HF: Form G                          :      0.283u      0.000s      0.167w     10 calls
| JK: D                             :      0.000u      0.000s      0.000w     10 calls
| JK: USO2AO                        :      0.017u      0.000s      0.001w     10 calls
| JK: JK                            :      0.267u      0.000s      0.163w     10 calls
| | DFH: compute_JK()               :      0.267u      0.000s      0.163w     10 calls
| | | DFH: Grabbing AOs             :      0.000u      0.000s      0.000w     10 calls
| | | DFH: compute_J                :      0.050u      0.000s      0.025w     10 calls
| | | DFH: compute_K                :      0.217u      0.000s      0.138w     10 calls
| JK: AO2USO                        :      0.000u      0.000s      0.002w     10 calls
HF: Form F                          :      0.000u      0.000s      0.000w     10 calls
HF: Form D                          :      0.000u      0.000s      0.000w     10 calls
HF: DIIS                            :      0.017u      0.000s      0.007w      9 calls
| DIISManager::add_entry            :      0.000u      0.000s      0.001w      9 calls
| DIISManager::extrapolate          :      0.017u      0.000s      0.002w      9 calls
| | bMatrix setup                   :      0.000u      0.000s      0.001w      9 calls
| | bMatrix pseudoinverse           :      0.000u      0.000s      0.000w      9 calls
| | New vector                      :      0.017u      0.000s      0.000w      9 calls
HF: Form C                          :      0.000u      0.000s      0.005w      9 calls

**************************************************************************************

Host: albemarle

Timers On : Fri Jun 14 13:33:48 2019
Timers Off: Fri Jun 14 13:33:49 2019

Wall Time:        0.30 seconds

                                                       Time (seconds)
Module                                       User      System        Wall        Calls

--------------------------------------------------------------------------------------

**************************************************************************************

Host: albemarle

Timers On : Fri Jun 14 13:34:11 2019
Timers Off: Fri Jun 14 13:34:14 2019

Wall Time:        2.74 seconds

                                                       Time (seconds)
Module                                       User      System        Wall        Calls
DFH: sparsity prep                  :      0.033u      0.000s      0.020w      1 calls
DFH: initialize()                   :      0.483u      0.000s      0.286w      1 calls
DFH: AO Construction                :      0.133u      0.000s      0.083w      1 calls
DFH: AO-Met. Contraction            :      0.133u      0.000s      0.080w      1 calls
HF: Form core H                     :      0.000u      0.000s      0.001w      1 calls
HF: Form S/X                        :      0.000u      0.000s      0.001w      1 calls
HF: Guess                           :      0.300u      0.000s      0.186w      1 calls
SAD Guess                           :      0.300u      0.000s      0.179w      1 calls
HF: Form G                          :      0.250u      0.000s      0.167w     10 calls
JK: D                               :      0.000u      0.000s      0.000w     10 calls
JK: USO2AO                          :      0.000u      0.000s      0.001w     10 calls
JK: JK                              :      0.250u      0.000s      0.163w     10 calls
DFH: compute_JK()                   :      0.250u      0.000s      0.163w     10 calls
DFH: Grabbing AOs                   :      0.000u      0.000s      0.000w     10 calls
DFH: compute_J                      :      0.017u      0.000s      0.025w     10 calls
DFH: compute_K                      :      0.233u      0.000s      0.138w     10 calls
JK: AO2USO                          :      0.000u      0.000s      0.002w     10 calls
HF: Form F                          :      0.000u      0.000s      0.000w     10 calls
HF: Form D                          :      0.017u      0.000s      0.000w     10 calls
HF: DIIS                            :      0.000u      0.000s      0.007w      9 calls
DIISManager::add_entry              :      0.000u      0.000s      0.001w      9 calls
DIISManager::extrapolate            :      0.000u      0.000s      0.002w      9 calls
bMatrix setup                       :      0.000u      0.000s      0.001w      9 calls
bMatrix pseudoinverse               :      0.000u      0.000s      0.000w      9 calls
New vector                          :      0.000u      0.000s      0.000w      9 calls
HF: Form C                          :      0.000u      0.000s      0.005w      9 calls

--------------------------------------------------------------------------------------
DFH: sparsity prep                  :      0.033u      0.000s      0.020w      1 calls
DFH: initialize()                   :      0.483u      0.000s      0.286w      1 calls
| DFH: AO Construction              :      0.133u      0.000s      0.083w      1 calls
| DFH: AO-Met. Contraction          :      0.133u      0.000s      0.080w      1 calls
HF: Form core H                     :      0.000u      0.000s      0.001w      1 calls
HF: Form S/X                        :      0.000u      0.000s      0.001w      1 calls
HF: Guess                           :      0.300u      0.000s      0.186w      1 calls
| SAD Guess                         :      0.300u      0.000s      0.179w      1 calls
HF: Form G                          :      0.250u      0.000s      0.167w     10 calls
| JK: D                             :      0.000u      0.000s      0.000w     10 calls
| JK: USO2AO                        :      0.000u      0.000s      0.001w     10 calls
| JK: JK                            :      0.250u      0.000s      0.163w     10 calls
| | DFH: compute_JK()               :      0.250u      0.000s      0.163w     10 calls
| | | DFH: Grabbing AOs             :      0.000u      0.000s      0.000w     10 calls
| | | DFH: compute_J                :      0.017u      0.000s      0.025w     10 calls
| | | DFH: compute_K                :      0.233u      0.000s      0.138w     10 calls
| JK: AO2USO                        :      0.000u      0.000s      0.002w     10 calls
HF: Form F                          :      0.000u      0.000s      0.000w     10 calls
HF: Form D                          :      0.017u      0.000s      0.000w     10 calls
HF: DIIS                            :      0.000u      0.000s      0.007w      9 calls
| DIISManager::add_entry            :      0.000u      0.000s      0.001w      9 calls
| DIISManager::extrapolate          :      0.000u      0.000s      0.002w      9 calls
| | bMatrix setup                   :      0.000u      0.000s      0.001w      9 calls
| | bMatrix pseudoinverse           :      0.000u      0.000s      0.000w      9 calls
| | New vector                      :      0.000u      0.000s      0.000w      9 calls
HF: Form C                          :      0.000u      0.000s      0.005w      9 calls

**************************************************************************************

Host: albemarle

Timers On : Fri Jun 14 13:34:23 2019
Timers Off: Fri Jun 14 13:34:26 2019

Wall Time:        2.71 seconds

                                                       Time (seconds)
Module                                       User      System        Wall        Calls
DFH: sparsity prep                  :      0.033u      0.000s      0.020w      1 calls
DFH: initialize()                   :      0.450u      0.033s      0.288w      1 calls
DFH: AO Construction                :      0.133u      0.017s      0.082w      1 calls
DFH: AO-Met. Contraction            :      0.117u      0.000s      0.079w      1 calls
HF: Form core H                     :      0.000u      0.000s      0.001w      1 calls
HF: Form S/X                        :      0.000u      0.000s      0.001w      1 calls
HF: Guess                           :      0.300u      0.000s      0.185w      1 calls
SAD Guess                           :      0.283u      0.000s      0.179w      1 calls
HF: Form G                          :      0.267u      0.017s      0.165w     10 calls
JK: D                               :      0.000u      0.000s      0.000w     10 calls
JK: USO2AO                          :      0.000u      0.000s      0.001w     10 calls
JK: JK                              :      0.233u      0.017s      0.161w     10 calls
DFH: compute_JK()                   :      0.233u      0.017s      0.161w     10 calls
DFH: Grabbing AOs                   :      0.000u      0.000s      0.000w     10 calls
DFH: compute_J                      :      0.017u      0.017s      0.025w     10 calls
DFH: compute_K                      :      0.217u      0.000s      0.136w     10 calls
JK: AO2USO                          :      0.033u      0.000s      0.002w     10 calls
HF: Form F                          :      0.000u      0.000s      0.000w     10 calls
HF: Form D                          :      0.000u      0.000s      0.000w     10 calls
HF: DIIS                            :      0.000u      0.000s      0.007w      9 calls
DIISManager::add_entry              :      0.000u      0.000s      0.001w      9 calls
DIISManager::extrapolate            :      0.000u      0.000s      0.002w      9 calls
bMatrix setup                       :      0.000u      0.000s      0.001w      9 calls
bMatrix pseudoinverse               :      0.000u      0.000s      0.000w      9 calls
New vector                          :      0.000u      0.000s      0.000w      9 calls
HF: Form C                          :      0.000u      0.000s      0.005w      9 calls

--------------------------------------------------------------------------------------
DFH: sparsity prep                  :      0.033u      0.000s      0.020w      1 calls
DFH: initialize()                   :      0.450u      0.033s      0.288w      1 calls
| DFH: AO Construction              :      0.133u      0.017s      0.082w      1 calls
| DFH: AO-Met. Contraction          :      0.117u      0.000s      0.079w      1 calls
HF: Form core H                     :      0.000u      0.000s      0.001w      1 calls
HF: Form S/X                        :      0.000u      0.000s      0.001w      1 calls
HF: Guess                           :      0.300u      0.000s      0.185w      1 calls
| SAD Guess                         :      0.283u      0.000s      0.179w      1 calls
HF: Form G                          :      0.267u      0.017s      0.165w     10 calls
| JK: D                             :      0.000u      0.000s      0.000w     10 calls
| JK: USO2AO                        :      0.000u      0.000s      0.001w     10 calls
| JK: JK                            :      0.233u      0.017s      0.161w     10 calls
| | DFH: compute_JK()               :      0.233u      0.017s      0.161w     10 calls
| | | DFH: Grabbing AOs             :      0.000u      0.000s      0.000w     10 calls
| | | DFH: compute_J                :      0.017u      0.017s      0.025w     10 calls
| | | DFH: compute_K                :      0.217u      0.000s      0.136w     10 calls
| JK: AO2USO                        :      0.033u      0.000s      0.002w     10 calls
HF: Form F                          :      0.000u      0.000s      0.000w     10 calls
HF: Form D                          :      0.000u      0.000s      0.000w     10 calls
HF: DIIS                            :      0.000u      0.000s      0.007w      9 calls
| DIISManager::add_entry            :      0.000u      0.000s      0.001w      9 calls
| DIISManager::extrapolate          :      0.000u      0.000s      0.002w      9 calls
| | bMatrix setup                   :      0.000u      0.000s      0.001w      9 calls
| | bMatrix pseudoinverse           :      0.000u      0.000s      0.000w      9 calls
| | New vector                      :      0.000u      0.000s      0.000w      9 calls
HF: Form C                          :      0.000u      0.000s      0.005w      9 calls

**************************************************************************************

Host: albemarle

Timers On : Fri Jun 14 13:34:32 2019
Timers Off: Fri Jun 14 13:34:35 2019

Wall Time:        2.72 seconds

                                                       Time (seconds)
Module                                       User      System        Wall        Calls
DFH: sparsity prep                  :      0.033u      0.000s      0.020w      1 calls
DFH: initialize()                   :      0.483u      0.017s      0.293w      1 calls
DFH: AO Construction                :      0.150u      0.000s      0.084w      1 calls
DFH: AO-Met. Contraction            :      0.133u      0.000s      0.081w      1 calls
HF: Form core H                     :      0.000u      0.017s      0.001w      1 calls
HF: Form S/X                        :      0.000u      0.000s      0.001w      1 calls
HF: Guess                           :      0.317u      0.000s      0.188w      1 calls
SAD Guess                           :      0.317u      0.000s      0.181w      1 calls
HF: Form G                          :      0.267u      0.000s      0.167w     10 calls
JK: D                               :      0.000u      0.000s      0.000w     10 calls
JK: USO2AO                          :      0.000u      0.000s      0.001w     10 calls
JK: JK                              :      0.267u      0.000s      0.163w     10 calls
DFH: compute_JK()                   :      0.267u      0.000s      0.163w     10 calls
DFH: Grabbing AOs                   :      0.000u      0.000s      0.000w     10 calls
DFH: compute_J                      :      0.033u      0.000s      0.025w     10 calls
DFH: compute_K                      :      0.233u      0.000s      0.137w     10 calls
JK: AO2USO                          :      0.000u      0.000s      0.002w     10 calls
HF: Form F                          :      0.000u      0.000s      0.000w     10 calls
HF: Form D                          :      0.000u      0.000s      0.000w     10 calls
HF: DIIS                            :      0.017u      0.000s      0.007w      9 calls
DIISManager::add_entry              :      0.000u      0.000s      0.001w      9 calls
DIISManager::extrapolate            :      0.000u      0.000s      0.002w      9 calls
bMatrix setup                       :      0.000u      0.000s      0.001w      9 calls
bMatrix pseudoinverse               :      0.000u      0.000s      0.000w      9 calls
New vector                          :      0.000u      0.000s      0.000w      9 calls
HF: Form C                          :      0.000u      0.000s      0.005w      9 calls

--------------------------------------------------------------------------------------
DFH: sparsity prep                  :      0.033u      0.000s      0.020w      1 calls
DFH: initialize()                   :      0.483u      0.017s      0.293w      1 calls
| DFH: AO Construction              :      0.150u      0.000s      0.084w      1 calls
| DFH: AO-Met. Contraction          :      0.133u      0.000s      0.081w      1 calls
HF: Form core H                     :      0.000u      0.017s      0.001w      1 calls
HF: Form S/X                        :      0.000u      0.000s      0.001w      1 calls
HF: Guess                           :      0.317u      0.000s      0.188w      1 calls
| SAD Guess                         :      0.317u      0.000s      0.181w      1 calls
HF: Form G                          :      0.267u      0.000s      0.167w     10 calls
| JK: D                             :      0.000u      0.000s      0.000w     10 calls
| JK: USO2AO                        :      0.000u      0.000s      0.001w     10 calls
| JK: JK                            :      0.267u      0.000s      0.163w     10 calls
| | DFH: compute_JK()               :      0.267u      0.000s      0.163w     10 calls
| | | DFH: Grabbing AOs             :      0.000u      0.000s      0.000w     10 calls
| | | DFH: compute_J                :      0.033u      0.000s      0.025w     10 calls
| | | DFH: compute_K                :      0.233u      0.000s      0.137w     10 calls
| JK: AO2USO                        :      0.000u      0.000s      0.002w     10 calls
HF: Form F                          :      0.000u      0.000s      0.000w     10 calls
HF: Form D                          :      0.000u      0.000s      0.000w     10 calls
HF: DIIS                            :      0.017u      0.000s      0.007w      9 calls
| DIISManager::add_entry            :      0.000u      0.000s      0.001w      9 calls
| DIISManager::extrapolate          :      0.000u      0.000s      0.002w      9 calls
| | bMatrix setup                   :      0.000u      0.000s      0.001w      9 calls
| | bMatrix pseudoinverse           :      0.000u      0.000s      0.000w      9 calls
| | New vector                      :      0.000u      0.000s      0.000w      9 calls
HF: Form C                          :      0.000u      0.000s      0.005w      9 calls

**************************************************************************************

Host: albemarle

Timers On : Fri Jun 14 15:23:27 2019
Timers Off: Fri Jun 14 15:23:30 2019

Wall Time:        2.66 seconds

                                                       Time (seconds)
Module                                       User      System        Wall        Calls
DFH: sparsity prep                  :      0.033u      0.000s      0.020w      1 calls
DFH: initialize()                   :      0.483u      0.017s      0.289w      1 calls
DFH: AO Construction                :      0.133u      0.000s      0.082w      1 calls
DFH: AO-Met. Contraction            :      0.133u      0.017s      0.080w      1 calls
HF: Form core H                     :      0.000u      0.000s      0.001w      1 calls
HF: Form S/X                        :      0.000u      0.000s      0.001w      1 calls
HF: Guess                           :      0.300u      0.000s      0.185w      1 calls
SAD Guess                           :      0.300u      0.000s      0.179w      1 calls
HF: Form G                          :      0.267u      0.000s      0.167w     10 calls
JK: D                               :      0.000u      0.000s      0.000w     10 calls
JK: USO2AO                          :      0.000u      0.000s      0.001w     10 calls
JK: JK                              :      0.250u      0.000s      0.163w     10 calls
DFH: compute_JK()                   :      0.250u      0.000s      0.163w     10 calls
DFH: Grabbing AOs                   :      0.000u      0.000s      0.000w     10 calls
DFH: compute_J                      :      0.033u      0.000s      0.025w     10 calls
DFH: compute_K                      :      0.217u      0.000s      0.138w     10 calls
JK: AO2USO                          :      0.000u      0.000s      0.002w     10 calls
HF: Form F                          :      0.000u      0.000s      0.000w     10 calls
HF: Form D                          :      0.000u      0.000s      0.000w     10 calls
HF: DIIS                            :      0.017u      0.000s      0.007w      9 calls
DIISManager::add_entry              :      0.000u      0.000s      0.001w      9 calls
DIISManager::extrapolate            :      0.000u      0.000s      0.002w      9 calls
bMatrix setup                       :      0.000u      0.000s      0.001w      9 calls
bMatrix pseudoinverse               :      0.000u      0.000s      0.000w      9 calls
New vector                          :      0.000u      0.000s      0.000w      9 calls
HF: Form C                          :      0.017u      0.000s      0.005w      9 calls

--------------------------------------------------------------------------------------
DFH: sparsity prep                  :      0.033u      0.000s      0.020w      1 calls
DFH: initialize()                   :      0.483u      0.017s      0.289w      1 calls
| DFH: AO Construction              :      0.133u      0.000s      0.082w      1 calls
| DFH: AO-Met. Contraction          :      0.133u      0.017s      0.080w      1 calls
HF: Form core H                     :      0.000u      0.000s      0.001w      1 calls
HF: Form S/X                        :      0.000u      0.000s      0.001w      1 calls
HF: Guess                           :      0.300u      0.000s      0.185w      1 calls
| SAD Guess                         :      0.300u      0.000s      0.179w      1 calls
HF: Form G                          :      0.267u      0.000s      0.167w     10 calls
| JK: D                             :      0.000u      0.000s      0.000w     10 calls
| JK: USO2AO                        :      0.000u      0.000s      0.001w     10 calls
| JK: JK                            :      0.250u      0.000s      0.163w     10 calls
| | DFH: compute_JK()               :      0.250u      0.000s      0.163w     10 calls
| | | DFH: Grabbing AOs             :      0.000u      0.000s      0.000w     10 calls
| | | DFH: compute_J                :      0.033u      0.000s      0.025w     10 calls
| | | DFH: compute_K                :      0.217u      0.000s      0.138w     10 calls
| JK: AO2USO                        :      0.000u      0.000s      0.002w     10 calls
HF: Form F                          :      0.000u      0.000s      0.000w     10 calls
HF: Form D                          :      0.000u      0.000s      0.000w     10 calls
HF: DIIS                            :      0.017u      0.000s      0.007w      9 calls
| DIISManager::add_entry            :      0.000u      0.000s      0.001w      9 calls
| DIISManager::extrapolate          :      0.000u      0.000s      0.002w      9 calls
| | bMatrix setup                   :      0.000u      0.000s      0.001w      9 calls
| | bMatrix pseudoinverse           :      0.000u      0.000s      0.000w      9 calls
| | New vector                      :      0.000u      0.000s      0.000w      9 calls
HF: Form C                          :      0.017u      0.000s      0.005w      9 calls

**************************************************************************************

Host: albemarle

Timers On : Fri Jun 14 15:29:08 2019
Timers Off: Fri Jun 14 15:29:11 2019

Wall Time:        2.64 seconds

                                                       Time (seconds)
Module                                       User      System        Wall        Calls
DFH: sparsity prep                  :      0.033u      0.000s      0.020w      1 calls
DFH: initialize()                   :      0.450u      0.017s      0.289w      1 calls
[...]
DFH: AO Construction                :      0.167u      0.000s      0.100w      1 calls
DFH: AO-Met. Contraction            :      0.150u      0.000s      0.094w      1 calls
HF: Form core H                     :      0.000u      0.000s      0.001w      1 calls
HF: Form S/X                        :      0.000u      0.000s      0.001w      1 calls
HF: Guess                           :      0.317u      0.017s      0.192w      1 calls
SAD Guess                           :      0.300u      0.017s      0.182w      1 calls
HF: Form G                          :      0.300u      0.000s      0.177w     10 calls
JK: D                               :      0.000u      0.000s      0.000w     10 calls
JK: USO2AO                          :      0.000u      0.000s      0.001w     10 calls
JK: JK                              :      0.300u      0.000s      0.173w     10 calls
DFH: compute_JK()                   :      0.300u      0.000s      0.173w     10 calls
DFH: Grabbing AOs                   :      0.000u      0.000s      0.000w     10 calls
DFH: compute_J                      :      0.100u      0.000s      0.029w     10 calls
DFH: compute_K                      :      0.200u      0.000s      0.144w     10 calls
JK: AO2USO                          :      0.000u      0.000s      0.002w     10 calls
HF: Form F                          :      0.000u      0.000s      0.000w     10 calls
HF: Form D                          :      0.000u      0.000s      0.000w     10 calls
HF: DIIS                            :      0.000u      0.000s      0.007w      9 calls
DIISManager::add_entry              :      0.000u      0.000s      0.001w      9 calls
DIISManager::extrapolate            :      0.000u      0.000s      0.002w      9 calls
bMatrix setup                       :      0.000u      0.000s      0.001w      9 calls
bMatrix pseudoinverse               :      0.000u      0.000s      0.000w      9 calls
New vector                          :      0.000u      0.000s      0.000w      9 calls
HF: Form C                          :      0.000u      0.000s      0.006w      9 calls

--------------------------------------------------------------------------------------
DFH: sparsity prep                  :      0.033u      0.000s      0.020w      1 calls
DFH: initialize()                   :      0.533u      0.000s      0.329w      1 calls
| DFH: AO Construction              :      0.167u      0.000s      0.100w      1 calls
| DFH: AO-Met. Contraction          :      0.150u      0.000s      0.094w      1 calls
HF: Form core H                     :      0.000u      0.000s      0.001w      1 calls
HF: Form S/X                        :      0.000u      0.000s      0.001w      1 calls
HF: Guess                           :      0.317u      0.017s      0.192w      1 calls
| SAD Guess                         :      0.300u      0.017s      0.182w      1 calls
HF: Form G                          :      0.300u      0.000s      0.177w     10 calls
| JK: D                             :      0.000u      0.000s      0.000w     10 calls
| JK: USO2AO                        :      0.000u      0.000s      0.001w     10 calls
| JK: JK                            :      0.300u      0.000s      0.173w     10 calls
| | DFH: compute_JK()               :      0.300u      0.000s      0.173w     10 calls
| | | DFH: Grabbing AOs             :      0.000u      0.000s      0.000w     10 calls
| | | DFH: compute_J                :      0.100u      0.000s      0.029w     10 calls
| | | DFH: compute_K                :      0.200u      0.000s      0.144w     10 calls
| JK: AO2USO                        :      0.000u      0.000s      0.002w     10 calls
HF: Form F                          :      0.000u      0.000s      0.000w     10 calls
HF: Form D                          :      0.000u      0.000s      0.000w     10 calls
HF: DIIS                            :      0.000u      0.000s      0.007w      9 calls
| DIISManager::add_entry            :      0.000u      0.000s      0.001w      9 calls
| DIISManager::extrapolate          :      0.000u      0.000s      0.002w      9 calls
| | bMatrix setup                   :      0.000u      0.000s      0.001w      9 calls
| | bMatrix pseudoinverse           :      0.000u      0.000s      0.000w      9 calls
| | New vector                      :      0.000u      0.000s      0.000w      9 calls
HF: Form C                          :      0.000u      0.000s      0.006w      9 calls

**************************************************************************************

Host: albemarle

Timers On : Fri Jun 14 18:25:06 2019
Timers Off: Fri Jun 14 18:25:22 2019

Wall Time:       16.27 seconds

                                                       Time (seconds)
Module                                       User      System        Wall        Calls
DFH: sparsity prep                  :      0.067u      0.017s      0.041w      1 calls
DFH: initialize()                   :      4.850u      0.150s      2.997w      1 calls
DFH: AO Construction                :      1.283u      0.050s      0.798w      1 calls
DFH: AO-Met. Contraction            :      2.250u      0.067s      1.394w      1 calls
HF: Form core H                     :      0.000u      0.000s      0.001w      1 calls
HF: Form S/X                        :      0.017u      0.000s      0.007w      1 calls
HF: Guess                           :      0.417u      0.000s      0.252w      1 calls
SAD Guess                           :      0.417u      0.000s      0.245w      1 calls
HF: Form G                          :      4.617u      0.267s      2.921w     11 calls
JK: D                               :      0.000u      0.000s      0.002w     11 calls
JK: USO2AO                          :      0.017u      0.000s      0.001w     11 calls
JK: JK                              :      4.600u      0.267s      2.916w     11 calls
DFH: compute_JK()                   :      4.600u      0.267s      2.916w     11 calls
DFH: Grabbing AOs                   :      0.000u      0.000s      0.000w     11 calls
DFH: compute_J                      :      0.383u      0.000s      0.241w     11 calls
DFH: compute_K                      :      4.167u      0.267s      2.656w     11 calls
JK: AO2USO                          :      0.000u      0.000s      0.000w     11 calls
HF: Form F                          :      0.000u      0.000s      0.001w     11 calls
HF: Form D                          :      0.000u      0.000s      0.002w     11 calls
HF: DIIS                            :      0.017u      0.000s      0.033w     10 calls
DIISManager::add_entry              :      0.000u      0.000s      0.003w     10 calls
DIISManager::extrapolate            :      0.017u      0.000s      0.007w     10 calls
bMatrix setup                       :      0.000u      0.000s      0.003w     10 calls
bMatrix pseudoinverse               :      0.000u      0.000s      0.001w     10 calls
New vector                          :      0.017u      0.000s      0.004w     10 calls
HF: Form C                          :      0.133u      0.017s      0.081w     10 calls

--------------------------------------------------------------------------------------
DFH: sparsity prep                  :      0.067u      0.017s      0.041w      1 calls
DFH: initialize()                   :      4.850u      0.150s      2.997w      1 calls
| DFH: AO Construction              :      1.283u      0.050s      0.798w      1 calls
| DFH: AO-Met. Contraction          :      2.250u      0.067s      1.394w      1 calls
HF: Form core H                     :      0.000u      0.000s      0.001w      1 calls
HF: Form S/X                        :      0.017u      0.000s      0.007w      1 calls
HF: Guess                           :      0.417u      0.000s      0.252w      1 calls
| SAD Guess                         :      0.417u      0.000s      0.245w      1 calls
HF: Form G                          :      4.617u      0.267s      2.921w     11 calls
| JK: D                             :      0.000u      0.000s      0.002w     11 calls
| JK: USO2AO                        :      0.017u      0.000s      0.001w     11 calls
| JK: JK                            :      4.600u      0.267s      2.916w     11 calls
| | DFH: compute_JK()               :      4.600u      0.267s      2.916w     11 calls
| | | DFH: Grabbing AOs             :      0.000u      0.000s      0.000w     11 calls
| | | DFH: compute_J                :      0.383u      0.000s      0.241w     11 calls
| | | DFH: compute_K                :      4.167u      0.267s      2.656w     11 calls
| JK: AO2USO                        :      0.000u      0.000s      0.000w     11 calls
HF: Form F                          :      0.000u      0.000s      0.001w     11 calls
HF: Form D                          :      0.000u      0.000s      0.002w     11 calls
HF: DIIS                            :      0.017u      0.000s      0.033w     10 calls
| DIISManager::add_entry            :      0.000u      0.000s      0.003w     10 calls
| DIISManager::extrapolate          :      0.017u      0.000s      0.007w     10 calls
| | bMatrix setup                   :      0.000u      0.000s      0.003w     10 calls
| | bMatrix pseudoinverse           :      0.000u      0.000s      0.001w     10 calls
| | New vector                      :      0.017u      0.000s      0.004w     10 calls
HF: Form C                          :      0.133u      0.017s      0.081w     10 calls

**************************************************************************************

Host: albemarle

Timers On : Fri Jun 14 18:27:30 2019
Timers Off: Fri Jun 14 18:27:30 2019

Wall Time:        0.30 seconds

                                                       Time (seconds)
Module                                       User      System        Wall        Calls

--------------------------------------------------------------------------------------

**************************************************************************************

Host: albemarle

Timers On : Fri Jun 14 18:27:44 2019
Timers Off: Fri Jun 14 18:28:00 2019

Wall Time:       16.01 seconds

                                                       Time (seconds)
Module                                       User      System        Wall        Calls
DFH: sparsity prep                  :      0.067u      0.000s      0.041w      1 calls
DFH: initialize()                   :      4.817u      0.167s      2.984w      1 calls
DFH: AO Construction                :      1.267u      0.033s      0.777w      1 calls
DFH: AO-Met. Contraction            :      2.233u      0.100s      1.400w      1 calls
HF: Form core H                     :      0.000u      0.000s      0.001w      1 calls
HF: Form S/X                        :      0.000u      0.000s      0.007w      1 calls
HF: Guess                           :      0.433u      0.000s      0.254w      1 calls
SAD Guess                           :      0.417u      0.000s      0.247w      1 calls
HF: Form G                          :      4.533u      0.250s      2.886w     11 calls
JK: D                               :      0.000u      0.000s      0.002w     11 calls
JK: USO2AO                          :      0.000u      0.000s      0.000w     11 calls
JK: JK                              :      4.533u      0.250s      2.881w     11 calls
DFH: compute_JK()                   :      4.533u      0.250s      2.881w     11 calls
DFH: Grabbing AOs                   :      0.000u      0.000s      0.000w     11 calls
DFH: compute_J                      :      0.383u      0.000s      0.238w     11 calls
DFH: compute_K                      :      4.150u      0.200s      2.625w     11 calls
JK: AO2USO                          :      0.000u      0.000s      0.000w     11 calls
HF: Form F                          :      0.000u      0.000s      0.001w     11 calls
HF: Form D                          :      0.000u      0.000s      0.002w     11 calls
HF: DIIS                            :      0.017u      0.033s      0.032w     10 calls
DIISManager::add_entry              :      0.000u      0.000s      0.002w     10 calls
DIISManager::extrapolate            :      0.017u      0.017s      0.007w     10 calls
bMatrix setup                       :      0.000u      0.017s      0.003w     10 calls
bMatrix pseudoinverse               :      0.000u      0.000s      0.001w     10 calls
New vector                          :      0.017u      0.000s      0.003w     10 calls
HF: Form C                          :      0.117u      0.033s      0.071w     10 calls

--------------------------------------------------------------------------------------
DFH: sparsity prep                  :      0.067u      0.000s      0.041w      1 calls
DFH: initialize()                   :      4.817u      0.167s      2.984w      1 calls
| DFH: AO Construction              :      1.267u      0.033s      0.777w      1 calls
| DFH: AO-Met. Contraction          :      2.233u      0.100s      1.400w      1 calls
HF: Form core H                     :      0.000u      0.000s      0.001w      1 calls
HF: Form S/X                        :      0.000u      0.000s      0.007w      1 calls
HF: Guess                           :      0.433u      0.000s      0.254w      1 calls
| SAD Guess                         :      0.417u      0.000s      0.247w      1 calls
HF: Form G                          :      4.533u      0.250s      2.886w     11 calls
| JK: D                             :      0.000u      0.000s      0.002w     11 calls
| JK: USO2AO                        :      0.000u      0.000s      0.000w     11 calls
| JK: JK                            :      4.533u      0.250s      2.881w     11 calls
| | DFH: compute_JK()               :      4.533u      0.250s      2.881w     11 calls
| | | DFH: Grabbing AOs             :      0.000u      0.000s      0.000w     11 calls
| | | DFH: compute_J                :      0.383u      0.000s      0.238w     11 calls
| | | DFH: compute_K                :      4.150u      0.200s      2.625w     11 calls
| JK: AO2USO                        :      0.000u      0.000s      0.000w     11 calls
HF: Form F                          :      0.000u      0.000s      0.001w     11 calls
HF: Form D                          :      0.000u      0.000s      0.002w     11 calls
HF: DIIS                            :      0.017u      0.033s      0.032w     10 calls
| DIISManager::add_entry            :      0.000u      0.000s      0.002w     10 calls
| DIISManager::extrapolate          :      0.017u      0.017s      0.007w     10 calls
| | bMatrix setup                   :      0.000u      0.017s      0.003w     10 calls
| | bMatrix pseudoinverse           :      0.000u      0.000s      0.001w     10 calls
| | New vector                      :      0.017u      0.000s      0.003w     10 calls
HF: Form C                          :      0.117u      0.033s      0.071w     10 calls

**************************************************************************************

Host: albemarle

Timers On : Fri Jun 14 18:35:10 2019
Timers Off: Fri Jun 14 18:35:13 2019

Wall Time:        3.10 seconds

                                                       Time (seconds)
Module                                       User      System        Wall        Calls
DFH: sparsity prep                  :      0.050u      0.000s      0.020w      1 calls
DFH: initialize()                   :      0.517u      0.033s      0.331w      1 calls
DFH: AO Construction                :      0.167u      0.017s      0.098w      1 calls
DFH: AO-Met. Contraction            :      0.150u      0.000s      0.095w      1 calls
HF: Form core H                     :      0.000u      0.000s      0.030w      1 calls
HF: Form S/X                        :      0.000u      0.000s      0.002w      1 calls
HF: Guess                           :      0.333u      0.000s      0.194w      1 calls
SAD Guess                           :      0.317u      0.000s      0.181w      1 calls
HF: Form G                          :      0.267u      0.017s      0.180w     10 calls
JK: D                               :      0.000u      0.000s      0.000w     10 calls
JK: USO2AO                          :      0.000u      0.000s      0.001w     10 calls
JK: JK                              :      0.250u      0.017s      0.175w     10 calls
DFH: compute_JK()                   :      0.250u      0.017s      0.175w     10 calls
DFH: Grabbing AOs                   :      0.000u      0.000s      0.000w     10 calls
DFH: compute_J                      :      0.000u      0.017s      0.029w     10 calls
DFH: compute_K                      :      0.250u      0.000s      0.146w     10 calls
JK: AO2USO                          :      0.017u      0.000s      0.002w     10 calls
HF: Form F                          :      0.000u      0.000s      0.000w     10 calls
HF: Form D                          :      0.000u      0.000s      0.000w     10 calls
HF: DIIS                            :      0.033u      0.000s      0.007w      9 calls
DIISManager::add_entry              :      0.017u      0.000s      0.001w      9 calls
DIISManager::extrapolate            :      0.000u      0.000s      0.002w      9 calls
bMatrix setup                       :      0.000u      0.000s      0.001w      9 calls
bMatrix pseudoinverse               :      0.000u      0.000s      0.000w      9 calls
New vector                          :      0.000u      0.000s      0.001w      9 calls
HF: Form C                          :      0.017u      0.000s      0.006w      9 calls

--------------------------------------------------------------------------------------
DFH: sparsity prep                  :      0.050u      0.000s      0.020w      1 calls
DFH: initialize()                   :      0.517u      0.033s      0.331w      1 calls
| DFH: AO Construction              :      0.167u      0.017s      0.098w      1 calls
| DFH: AO-Met. Contraction          :      0.150u      0.000s      0.095w      1 calls
HF: Form core H                     :      0.000u      0.000s      0.030w      1 calls
HF: Form S/X                        :      0.000u      0.000s      0.002w      1 calls
HF: Guess                           :      0.333u      0.000s      0.194w      1 calls
| SAD Guess                         :      0.317u      0.000s      0.181w      1 calls
HF: Form G                          :      0.267u      0.017s      0.180w     10 calls
| JK: D                             :      0.000u      0.000s      0.000w     10 calls
| JK: USO2AO                        :      0.000u      0.000s      0.001w     10 calls
| JK: JK                            :      0.250u      0.017s      0.175w     10 calls
| | DFH: compute_JK()               :      0.250u      0.017s      0.175w     10 calls
| | | DFH: Grabbing AOs             :      0.000u      0.000s      0.000w     10 calls
| | | DFH: compute_J                :      0.000u      0.017s      0.029w     10 calls
| | | DFH: compute_K                :      0.250u      0.000s      0.146w     10 calls
| JK: AO2USO                        :      0.017u      0.000s      0.002w     10 calls
HF: Form F                          :      0.000u      0.000s      0.000w     10 calls
HF: Form D                          :      0.000u      0.000s      0.000w     10 calls
HF: DIIS                            :      0.033u      0.000s      0.007w      9 calls
| DIISManager::add_entry            :      0.017u      0.000s      0.001w      9 calls
| DIISManager::extrapolate          :      0.000u      0.000s      0.002w      9 calls
| | bMatrix setup                   :      0.000u      0.000s      0.001w      9 calls
| | bMatrix pseudoinverse           :      0.000u      0.000s      0.000w      9 calls
| | New vector                      :      0.000u      0.000s      0.001w      9 calls
HF: Form C                          :      0.017u      0.000s      0.006w      9 calls

**************************************************************************************
